 
data_shelx
 
_audit_creation_method            'SHELXL-2014/7'
_shelx_SHELXL_version_number      '2014/7'
_chemical_name_systematic         ?
_chemical_name_common             ?
_chemical_melting_point           ?
_chemical_formula_moiety          ?
_chemical_formula_sum
 'C2 Cu D6 F2 N O2' 
_chemical_formula_weight          183.65

loop_
 _atom_type_symbol
 _atom_type_description
 _atom_type_scat_dispersion_real
 _atom_type_scat_dispersion_imag
 _atom_type_scat_source
 'C'  'C'   0.0033   0.0016
 'International Tables Vol C Tables 4.2.6.8 and 6.1.1.4'
 'D'  'D'   0.0000   0.0000
 'International Tables Vol C Tables 4.2.6.8 and 6.1.1.4'
 'N'  'N'   0.0061   0.0033
 'International Tables Vol C Tables 4.2.6.8 and 6.1.1.4'
 'O'  'O'   0.0106   0.0060
 'International Tables Vol C Tables 4.2.6.8 and 6.1.1.4'
 'F'  'F'   0.0171   0.0103
 'International Tables Vol C Tables 4.2.6.8 and 6.1.1.4'
 'Cu'  'Cu'   0.3201   1.2651
 'International Tables Vol C Tables 4.2.6.8 and 6.1.1.4'
 
_space_group_crystal_system       ?
_space_group_IT_number             ?
_space_group_name_H-M_alt         ?
_space_group_name_Hall            ?
 
_shelx_space_group_comment
;
The symmetry employed for this shelxl refinement is uniquely defined
by the following loop, which should always be used as a source of
symmetry information in preference to the above space-group names.
They are only intended as comments.
;
 
loop_
 _space_group_symop_operation_xyz
 'x, y, z'
 '-x, y, -z+1/2'
 'x+1/2, y+1/2, z+1/2'
 '-x+1/2, y+1/2, -z+1'
 '-x, -y, -z'
 'x, -y, z-1/2'
 '-x+1/2, -y+1/2, -z+1/2'
 'x+1/2, -y+1/2, z'
 
_cell_length_a                    20.753(16)
_cell_length_b                    7.5170(6)
_cell_length_c                    6.4475(4)
_cell_angle_alpha                 90
_cell_angle_beta                  103.21(2)
_cell_angle_gamma                 90
_cell_volume                      979.2(8)
_cell_formula_units_Z             8
_cell_measurement_temperature     293(2)
_cell_measurement_reflns_used     ?
_cell_measurement_theta_min       ?
_cell_measurement_theta_max       ?
 
_exptl_crystal_description        ?
_exptl_crystal_colour             ?
_exptl_crystal_density_meas       ?
_exptl_crystal_density_method     ?
_exptl_crystal_density_diffrn     2.491          
_exptl_crystal_F_000              704
_exptl_transmission_factor_min    ?
_exptl_transmission_factor_max    ?
_exptl_crystal_size_max           ?
_exptl_crystal_size_mid           ?
_exptl_crystal_size_min           ?
_exptl_absorpt_coefficient_mu     4.407
_shelx_estimated_absorpt_T_min    ?
_shelx_estimated_absorpt_T_max    ?
_exptl_absorpt_correction_type    ?
_exptl_absorpt_correction_T_min   ?
_exptl_absorpt_correction_T_max   ?
_exptl_absorpt_process_details    ?
_exptl_absorpt_special_details    ?
_diffrn_ambient_temperature       293(2)
_diffrn_radiation_wavelength      0.71073
_diffrn_radiation_type            MoK\a
_diffrn_source                    ?
_diffrn_measurement_device_type   ?
_diffrn_measurement_method        ?
_diffrn_detector_area_resol_mean  ?
_diffrn_reflns_number             1322
_diffrn_reflns_av_unetI/netI      0.0168
_diffrn_reflns_av_R_equivalents   0.0179
_diffrn_reflns_limit_h_min        -12
_diffrn_reflns_limit_h_max        11
_diffrn_reflns_limit_k_min        -7
_diffrn_reflns_limit_k_max        9
_diffrn_reflns_limit_l_min        -8
_diffrn_reflns_limit_l_max        8
_diffrn_reflns_theta_min          2.891
_diffrn_reflns_theta_max          28.343
_diffrn_reflns_theta_full         25.242
_diffrn_measured_fraction_theta_max   0.283
_diffrn_measured_fraction_theta_full  0.336
_diffrn_reflns_Laue_measured_fraction_max    0.283
_diffrn_reflns_Laue_measured_fraction_full   0.336
_diffrn_reflns_point_group_measured_fraction_max   0.283
_diffrn_reflns_point_group_measured_fraction_full  0.336
_reflns_number_total              348
_reflns_number_gt                 245
_reflns_threshold_expression      'I > 2\s(I)'
_reflns_Friedel_coverage          0.000
_reflns_Friedel_fraction_max      .
_reflns_Friedel_fraction_full     .
 
_reflns_special_details
;
 Reflections were merged by SHELXL according to the crystal
 class for the calculation of statistics and refinement.
 
 _reflns_Friedel_fraction is defined as the number of unique
 Friedel pairs measured divided by the number that would be
 possible theoretically, ignoring centric projections and
 systematic absences.
;
 
_computing_data_collection        ?
_computing_cell_refinement        ?
_computing_data_reduction         ?
_computing_structure_solution     ?
_computing_structure_refinement 'SHELXL-2014/7 (Sheldrick, 2014)'
_computing_molecular_graphics     ?
_computing_publication_material   ?
_refine_special_details           ?
_refine_ls_structure_factor_coef  Fsqd
_refine_ls_matrix_type            full
_refine_ls_weighting_scheme       calc
_refine_ls_weighting_details
'w=1/[\s^2^(Fo^2^)+(0.0497P)^2^+2.6828P] where P=(Fo^2^+2Fc^2^)/3'
_atom_sites_solution_primary      ?
_atom_sites_solution_secondary    ?
_atom_sites_solution_hydrogens    mixed
_refine_ls_hydrogen_treatment     mixed
_refine_ls_extinction_method      none
_refine_ls_extinction_coef        .
_refine_ls_number_reflns          348
_refine_ls_number_parameters      50
_refine_ls_number_restraints      6
_refine_ls_R_factor_all           0.0442
_refine_ls_R_factor_gt            0.0304
_refine_ls_wR_factor_ref          0.0956
_refine_ls_wR_factor_gt           0.0861
_refine_ls_goodness_of_fit_ref    1.106
_refine_ls_restrained_S_all       1.095
_refine_ls_shift/su_max           0.000
_refine_ls_shift/su_mean          0.000
 
loop_
 _atom_site_label
 _atom_site_type_symbol
 _atom_site_fract_x
 _atom_site_fract_y
 _atom_site_fract_z
 _atom_site_U_iso_or_equiv
 _atom_site_adp_type
 _atom_site_occupancy
 _atom_site_site_symmetry_order  
 _atom_site_calc_flag
 _atom_site_refinement_flags_posn
 _atom_site_refinement_flags_adp
 _atom_site_refinement_flags_occupancy
 _atom_site_disorder_assembly
 _atom_site_disorder_group
Cu1 Cu -0.08037(9) -0.25047(7) 0.14279(11) 0.0141(19) Uani 1 1 d . . . . .
O1 O -0.0295(6) -0.2557(4) 0.4437(7) 0.0150(10) Uiso 1 1 d D . . . .
H1A D -0.051(2) -0.355(2) 0.491(7) 0.018 Uiso 1 1 d D U . . .
H1B D -0.051(2) -0.154(2) 0.488(7) 0.018 Uiso 1 1 d D U . . .
F1 F -0.0736(4) 0.0018(5) 0.1445(5) 0.0184(8) Uiso 1 1 d . . . . .
F2 F -0.0814(4) -0.5024(5) 0.1347(5) 0.0183(9) Uiso 1 1 d . . . . .
N2 N -0.1819(9) -0.2427(6) 0.2275(11) 0.0260(14) Uiso 1 1 d . . . . .
O2 O -0.1232(6) -0.2479(4) -0.1624(7) 0.0178(10) Uiso 1 1 d D . . . .
H2B D -0.101(2) -0.149(2) -0.208(7) 0.021 Uiso 1 1 d D U . . .
H2A D -0.103(2) -0.350(2) -0.211(7) 0.021 Uiso 1 1 d D U . . .
C1 C -0.2077(8) -0.1286(8) 0.3507(12) 0.0255(17) Uiso 1 1 d . . . . .
H1 D -0.1806 -0.0383 0.4205 0.031 Uiso 1 1 calc R U . . .
C2 C -0.2304(10) -0.3623(8) 0.1220(13) 0.0303(17) Uiso 1 1 d . . . . .
H2 D -0.2186 -0.4412 0.0259 0.036 Uiso 1 1 calc R U . . .
 
loop_
 _atom_site_aniso_label
 _atom_site_aniso_U_11
 _atom_site_aniso_U_22
 _atom_site_aniso_U_33
 _atom_site_aniso_U_23
 _atom_site_aniso_U_13
 _atom_site_aniso_U_12
Cu1 0.015(6) 0.0109(5) 0.0161(6) 0.0002(3) 0.0029(15) -0.0006(6)
 
_geom_special_details
;
 All esds (except the esd in the dihedral angle between two l.s. planes)
 are estimated using the full covariance matrix.  The cell esds are taken
 into account individually in the estimation of esds in distances, angles
 and torsion angles; correlations between esds in cell parameters are only
 used when they are defined by crystal symmetry.  An approximate (isotropic)
 treatment of cell esds is used for estimating esds involving l.s. planes.
;
 
loop_
 _geom_bond_atom_site_label_1
 _geom_bond_atom_site_label_2
 _geom_bond_distance
 _geom_bond_site_symmetry_2
 _geom_bond_publ_flag
Cu1 F2 1.894(4) . ?
Cu1 F1 1.901(4) . ?
Cu1 O2 1.965(6) . ?
Cu1 O1 1.986(7) . ?
Cu1 N2 2.294(16) . ?
Cu1 O1 2.469(12) 2 ?
N2 C1 1.360(10) . ?
N2 C2 1.40(2) . ?
C1 C2 1.34(2) 7_445 ?
C2 C1 1.34(2) 7_445 ?
 
loop_
 _geom_angle_atom_site_label_1
 _geom_angle_atom_site_label_2
 _geom_angle_atom_site_label_3
 _geom_angle
 _geom_angle_site_symmetry_1
 _geom_angle_site_symmetry_3
 _geom_angle_publ_flag
F2 Cu1 F1 175.9(3) . . ?
F2 Cu1 O2 89.01(16) . . ?
F1 Cu1 O2 90.68(17) . . ?
F2 Cu1 O1 90.41(17) . . ?
F1 Cu1 O1 89.54(17) . . ?
O2 Cu1 O1 174.9(4) . . ?
F2 Cu1 N2 91.5(2) . . ?
F1 Cu1 N2 92.5(2) . . ?
O2 Cu1 N2 90.5(4) . . ?
O1 Cu1 N2 94.6(3) . . ?
F2 Cu1 O1 89.0(2) . 2 ?
F1 Cu1 O1 86.9(2) . 2 ?
O2 Cu1 O1 90.2(3) . 2 ?
O1 Cu1 O1 84.7(2) . 2 ?
N2 Cu1 O1 179.1(2) . 2 ?
C1 N2 C2 110.6(14) . . ?
C1 N2 Cu1 131.4(10) . . ?
C2 N2 Cu1 117.7(7) . . ?
C2 C1 N2 124.3(12) 7_445 . ?
C1 C2 N2 125.0(8) 7_445 . ?
 
_refine_diff_density_max    0.311
_refine_diff_density_min   -0.240
_refine_diff_density_rms    0.067

_shelx_res_file
;

    shelx.res created by SHELXL-2014/7


TITL Cupyz2_102 in I2/c
CELL  0.71073  20.7534   7.5170   6.4475   90.000  103.208   90.000
ZERR     8   0.0160   0.0006   0.0004    0.000    0.022    0.000
LATT   2
SYMM  - X,   Y, 1/2 - Z
SFAC  C   D    N    O    F    CU
UNIT  16 48 8 16 16 8
MERG   2
eqiv $1 - X,   Y, 1/2 - Z
SADI  0.0001 N1 C1 N1 C2
DFIX  0.9584 0.001 O1 H1A O1 H1B O2 H2A O2 H2B
DFIX 1.5150 0.001 H1a H1b H2a h2b
Bind Cu1 O1_$1
FMAP   2
PLAN   10
ACTA
L.S.  24
WGHT    0.049700    2.682800
FVAR       3.54606
CU1   6   -0.080372   -0.250469    0.142792    11.00000    0.01514    0.01087 =
         0.01606    0.00018    0.00291   -0.00061
O1    4   -0.029544   -0.255696    0.443686    11.00000    0.01501
H1A   2   -0.051029   -0.355464    0.491387    11.00000   -1.20000
H1B   2   -0.050905   -0.153953    0.487509    11.00000   -1.20000
F1    5   -0.073582    0.001808    0.144471    11.00000    0.01841
F2    5   -0.081412   -0.502398    0.134739    11.00000    0.01826
N2    3   -0.181851   -0.242713    0.227489    11.00000    0.02595
O2    4   -0.123186   -0.247881   -0.162389    11.00000    0.01780
H2B   2   -0.100990   -0.148609   -0.208209    11.00000   -1.20000
H2A   2   -0.103317   -0.350045   -0.211272    11.00000   -1.20000
C1    1   -0.207696   -0.128605    0.350666    11.00000    0.02546
AFIX  43
H1    2   -0.180556   -0.038308    0.420521    11.00000   -1.20000
AFIX   0
C2    1   -0.230425   -0.362298    0.122042    11.00000    0.03031
AFIX  43
H2    2   -0.218646   -0.441176    0.025890    11.00000   -1.20000

AFIX   0
HKLF    4

REM  Cupyz2_102 in I2/c
REM R1 =  0.0304 for     245 Fo > 4sig(Fo)  and  0.0442 for all     348 data
REM     50 parameters refined using      6 restraints

END

WGHT      0.0498      2.6280

REM Highest difference peak  0.311,  deepest hole -0.240,  1-sigma level  0.067
Q1    1  -0.0795 -0.0009  0.0693  11.00000  0.05    0.31
Q2    1   0.0000  0.0225  0.2500  10.50000  0.05    0.24
Q3    1  -0.0650 -0.5018  0.2247  11.00000  0.05    0.24
Q4    1   0.0000 -0.5271  0.2500  10.50000  0.05    0.24
Q5    1  -0.0584  0.0000  0.2223  11.00000  0.05    0.24
Q6    1  -0.0834 -0.4890  0.0685  11.00000  0.05    0.24
Q7    1  -0.0612 -0.4956  0.0828  11.00000  0.05    0.23
Q8    1  -0.0633 -0.2453  0.0014  11.00000  0.05    0.21
Q9    1  -0.0865 -0.2480 -0.0291  11.00000  0.05    0.20
Q10   1  -0.2308 -0.4115  0.1631  11.00000  0.05    0.19
;
_shelx_res_checksum   70146

_shelx_hkl_file
;
  -1   0   1 27.9999 26.6533   2
  -1   0   1-4.35994 43.9340   6
   1   0  -1 23.4059 19.7670   5
   1   0  -1 27.6510 26.0908   4
  -1   0   1 16.4381 21.9874   3
   1   0  -1-8.44523 45.6740   6
   1   0  -1 4.69106 29.9052   7
  -1   0   1 26.7564 44.3919   7
  -2   0   2 348716. 4599.21   6
   2   0  -2 344843. 1992.75   5
  -2   0   2 349638. 2505.86   3
   2   0  -2 340983. 4464.38   7
   2   0  -2 342898. 2537.71   4
   2   0  -2 334710. 4627.63   6
  -2   0   2 342213. 2557.03   2
  -2   0   2 339736. 4317.25   7
  -3   0   3-16.9594 84.9379   2
   3   0  -3-46.1198 70.3697   5
   3   0  -3-42.3865 207.944   7
   3   0  -3-42.1787 98.9171   4
  -3   0   3-289.621 216.664   7
  -3   0   3-113.900 111.178   3
  -3   0   3 1.99072 126.989   6
   3   0  -3 213.038 208.513   6
  -4   0   4 315634. 3586.88   2
  -4   0   4 343686. 6419.18   7
   4   0  -4 334406. 3049.42   5
   4   0  -4 352828. 6947.55   7
  -4   0   4 326408. 3591.46   3
   4   0  -4 325605. 3756.60   4
   5   0  -5-180.804 253.877   4
  -5   0   5-99.3592 166.057   3
   6   0  -6 46354.4 1998.53   4
  -6   0   6 44230.6 1787.96   3
   7   0  -7 311.462 364.240   4
  -7   0   7 152.767 302.443   3
   8   0  -8-355.798 531.230   4
  -8   0   8 408.669 410.372   3
  -1   2   1 22800.5 379.920   5
  -1  -2   1 21613.9 665.051   6
  -1  -2   1 22358.2 471.923   2
   1   2  -1 21615.5 1032.33   7
  -1   2   1 20430.5 844.342   6
   1   2  -1 21218.0 607.944   5
   1   2  -1 21821.8 585.397   4
  -1  -2   1 22220.4 1015.91   7
   1  -2  -1 22400.1 965.174   6
  -1  -2   1 22675.9 585.568   3
   1   2  -1 22119.5 831.242   6
   2   2  -2 8181.24 810.319   7
  -2   2   2 7920.85 391.462   2
  -2   2   2 8832.51 335.309   3
   2  -2  -2 8157.12 362.433   4
   2   2  -2 8263.22 772.344   6
   2   2  -2 8420.33 472.729   4
  -2  -2   2 8235.71 407.626   2
  -2   2   2 8359.18 575.495   7
   2   2  -2 7720.05 432.484   5
   2  -2  -2 7992.03 782.938   6
  -2  -2   2 7632.84 773.684   7
  -2  -2   2 8433.66 651.545   6
  -2   2   2 8290.67 729.997   6
  -2  -2   2 7930.38 452.449   3
   2  -2  -2 8419.57 641.905   7
  -3   2   3 6791.34 449.433   2
   3   2  -3 7269.59 927.327   7
  -3  -2   3 7302.70 774.328   6
   3   2  -3 6519.97 452.540   5
   3   2  -3 7695.63 945.579   6
  -3   2   3 7311.77 850.301   6
  -3  -2   3 6781.45 458.952   2
   3  -2  -3 7243.73 809.280   7
   3  -2  -3 6215.04 420.501   4
  -3   2   3 7053.49 704.758   7
   3  -2  -3 6509.67 887.280   6
  -3   2   3 7314.52 416.443   3
   3   2  -3 6680.55 504.635   4
  -3  -2   3 6958.56 875.935   7
  -3  -2   3 6853.08 503.037   3
  -4  -2   4 79713.4 1949.96   3
   4  -2  -4 76270.2 1815.20   4
  -4   2   4 81502.5 1724.53   3
   4   2  -4 83462.5 3648.35   6
   4   2  -4 78611.4 2009.09   4
  -4  -2   4 81947.5 3089.99   6
   4   2  -4 84638.9 1852.92   5
   4  -2  -4 80264.8 3276.22   7
  -4  -2   4 77514.7 1831.75   2
  -4   2   4 80741.5 2994.43   7
   5   2  -5 23.6671 181.321   5
  -5  -2   5-128.025 213.464   3
  -5   2   5 236.824 182.529   3
   5  -2  -5-355.928 254.140   4
   5   2  -5-4.60084 220.426   4
   6   2  -6 13992.7 1206.09   4
  -6  -2   6 15175.2 1134.62   3
   6   2  -6 16204.2 1081.88   5
  -6   2   6 15507.8 1049.90   3
   7   2  -7 424.335 522.336   4
  -7  -2   7 520.892 440.643   3
  -8  -2   8 686.551 537.089   3
   8   2  -8 796.341 562.115   4
   1   4  -1 171.137 93.6196   4
   1   4  -1 161.049 123.990   5
  -1  -4   1 288.991 113.680   3
   1   4  -1 111.805 152.053   7
   1  -4  -1-96.9468 176.631   6
  -1  -4   1 120.543 159.360   7
  -2  -4   2 284646. 3139.32   3
   2  -4  -2 297891. 5675.09   6
   2   4  -2 295670. 5884.32   7
   2   4  -2 286026. 3305.31   4
   2   4  -2 284537. 3304.76   5
  -2  -4   2 279876. 5415.38   7
  -2   4   2 294797. 4780.94   6
  -3   4   3-65.8263 232.446   6
   3   4  -3-110.156 179.938   4
  -3  -4   3-103.314 152.849   3
   3   4  -3 211.357 198.026   5
   3  -4  -3 213.738 279.858   6
   4   4  -4 251200. 4067.01   4
  -4  -4   4 253444. 3888.82   3
   4   4  -4 260714. 3871.76   5
  -5  -4   5 419.633 314.538   3
   5   4  -5 277.743 325.160   4
   5   4  -5-151.345 227.496   5
  -6  -4   6 27325.8 1624.44   3
   6   4  -6 28556.5 1625.59   5
   6   4  -6 31494.8 1925.57   4
   7   4  -7 114.230 371.110   5
  -7  -4   7 158.262 330.289   3
   7   4  -7 89.3188 482.227   4
   1   6  -1 1513.74 325.740   5
   2   6  -2 9884.81 814.978   5
   3   6  -3 1862.07 437.378   4
  -3  -6   3 1539.10 369.196   3
   3   6  -3 1778.31 401.280   5
   4   6  -4 46123.2 2121.21   4
   4   6  -4 46098.2 1944.15   5
  -4  -6   4 41134.6 1796.46   3
   5   6  -5 350.461 409.107   4
  -5  -6   5-344.930 376.010   3
   5   6  -5-401.922 362.087   5
  -6  -6   6 8535.60 1069.64   3
   6   6  -6 10247.6 1173.53   5
   6   6  -6 10113.0 1338.68   4
   1   8  -1-440.857 314.144   5
   2   8  -2 64224.1 2446.34   5
   3   8  -3-368.166 363.310   5
   4   8  -4 67130.6 2847.64   5
   7   1  -8 647.090 522.530   4
  -7  -1   8-505.965 473.437   3
  -6  -1   7 1336.15 541.068   3
   6   1  -7 1129.66 450.590   4
   6  -1  -7 304.192 399.334   4
  -6   1   7 1272.25 460.813   3
   5   1  -6-350.830 310.147   4
   5  -1  -6 388.386 308.252   4
  -5  -1   6-26.0754 243.423   3
  -5   1   6 424.771 270.562   3
   4   1  -5 527.190 178.038   5
  -4  -1   5 777.088 271.987   3
   4  -1  -5 901.201 255.364   4
  -4   1   5 795.298 274.299   3
   4   1  -5 550.317 242.854   4
   3   1  -4 764.985 175.058   5
  -3   1   4 1007.01 225.717   3
   3  -1  -4 644.083 345.567   7
   3  -1  -4 1021.12 228.870   4
  -3  -1   4 1186.52 413.103   6
  -3   1   4 1193.98 433.993   7
  -3  -1   4 1031.59 243.884   3
   3   1  -4 945.601 416.154   6
   3   1  -4 933.184 224.856   4
   2  -1  -3 149602. 1928.36   4
   2   1  -3 149995. 2130.29   4
  -2  -1   3 151402. 3613.06   6
   2  -1  -3 149248. 3396.90   7
   2   1  -3 152449. 1871.35   5
  -2   1   3 150222. 3584.73   7
  -2  -1   3 148243. 2229.20   3
   2  -1  -3 148989. 3805.02   6
   2  -1  -3 150026. 1288.32   5
   2   1  -3 159384. 3834.55   6
  -2  -1   3 153231. 3953.12   7
  -2   1   3 148784. 2047.59   3
  -2   1   3 155451. 3774.23   6
   2   1  -3 155487. 3857.48   7
  -1   1   2 17277.5 546.128   3
  -1   1   2 16257.6 929.650   7
   1   1  -2 16506.2 971.038   6
   1   1  -2 17388.0 1049.36   7
  -1  -1   2 16593.7 607.707   3
   1  -1  -2 17242.4 499.361   4
   1  -1  -2 16197.5 850.927   7
  -1  -1   2 16468.1 948.041   6
  -1   1   2 16740.4 1002.15   6
   1   1  -2 17586.7 606.686   4
   1  -1  -2 16380.4 287.768   5
   1   1  -2 16935.8 539.909   5
  -1  -1   2 16671.9 1056.12   7
   1  -1  -2 16959.6 1045.23   6
   0  -1   1 592091. 4156.90   6
   0   1  -1 601922. 4756.45   7
   0  -1   1 601973. 5021.61   7
   0  -1  -1 597815. 4353.26   6
   0  -1  -1 599492. 3587.23   7
   0   1  -1 619996. 2747.86   5
   0   1  -1 595812. 3913.34   6
   0   1   1 598261. 4536.75   6
   0   1   1 603858. 4616.93   7
   1   1   0 505.297 66.9386   5
  -2  -1   1 301873. 3570.48   7
  -2  -1   1 317026. 1939.10   2
  -2   1   1 301698. 3543.04   6
  -2  -1   1 315045. 2076.87   3
   2   1  -1 316187. 2090.43   5
   2   1  -1 300716. 3975.01   6
   2  -1  -1 298902. 3947.47   6
  -2   1   1 294552. 2999.15   7
   2   1  -1 306760. 2224.01   4
  -2  -1   1 315515. 3498.29   6
  -2   1   1 302859. 1851.85   2
   2   1  -1 300366. 3918.50   7
   2  -1  -1 303873. 4162.69   7
  -3   1   2 8975.46 770.710   6
   3   1  -2 9242.15 857.340   7
   3   1  -2 10288.8 457.497   5
   3  -1  -2 9180.00 807.572   7
   3  -1  -2 9986.98 483.297   4
  -3  -1   2 9478.25 789.643   7
  -3  -1   2 9993.97 467.402   3
   3  -1  -2 10264.2 956.626   6
  -3  -1   2 10678.8 477.742   2
  -3   1   2 9693.34 452.098   2
   3   1  -2 9917.24 904.934   6
  -3   1   2 10099.8 399.826   3
  -3  -1   2 9142.62 739.384   6
   3   1  -2 10040.4 512.279   4
  -3   1   2 10015.6 693.381   7
  -4   1   3 232385. 4222.42   7
  -4   1   3 234504. 2658.91   2
   4  -1  -3 253007. 5684.28   6
   4   1  -3 248555. 5550.13   6
  -4   1   3 245858. 4953.60   6
   4   1  -3 232399. 2560.14   5
  -4   1   3 230040. 2416.24   3
  -4  -1   3 234001. 2677.60   2
   4   1  -3 248036. 5401.22   7
  -4  -1   3 236796. 4792.46   7
   4  -1  -3 228000. 2847.27   4
  -4  -1   3 227088. 2688.30   3
  -4  -1   3 232725. 4615.25   6
   4   1  -3 242924. 3026.69   4
   4  -1  -3 234024. 5048.66   7
   5  -1  -4 499.943 232.393   4
  -5  -1   4 630.820 207.683   3
  -5   1   4 332.727 188.029   7
  -5   1   4 349.637 148.652   3
   5  -1  -4 98.1982 256.592   7
  -5  -1   4 690.168 195.654   2
   5   1  -4 564.488 169.009   5
   5   1  -4 554.665 225.933   4
  -5   1   4 595.526 204.659   2
   6   1  -5 165966. 3496.51   4
   6   1  -5 182662. 3049.48   5
  -6   1   5 185503. 2999.65   3
  -6  -1   5 179630. 3122.93   2
  -6   1   5 179649. 3109.44   2
   6  -1  -5 183969. 3547.70   4
  -6  -1   5 181577. 3188.27   3
  -7   1   6 78.3054 198.306   3
   7   1  -6-268.815 338.811   4
   7  -1  -6-118.346 294.513   4
  -7  -1   6 136.185 258.498   3
  -8  -1   7 31264.4 1797.29   3
   8   1  -7 34205.9 2212.89   4
   8  -1  -7 35493.9 2242.76   4
  -8   1   7 34282.9 1745.01   3
  -9  -1   8-338.514 421.305   3
   9   1  -8-172.256 512.630   4
  -6  -3   7 647.695 417.865   3
   6   3  -7-119.515 435.272   4
  -5  -3   6-61.7849 294.363   3
   5   3  -6 365.367 361.453   4
   5   3  -6 177.262 247.957   5
   4   3  -5 3791.02 561.250   4
   4   3  -5 4586.41 531.278   5
  -4  -3   5 2914.09 506.490   3
  -3  -3   4-52.5396 219.351   6
   3   3  -4 114.900 314.776   6
   3   3  -4 325.571 214.949   4
  -3  -3   4-35.2189 176.645   3
   3   3  -4-96.6199 155.421   5
  -2   3   3 72222.7 1549.77   3
  -2   3   3 72459.9 2641.66   7
   2   3  -3 75172.3 3064.61   7
  -2  -3   3 71942.7 1761.16   3
   2  -3  -3 73481.4 2283.46   7
  -2  -3   3 72002.4 2516.29   6
   2   3  -3 75431.6 2814.05   6
  -2  -3   3 73532.9 3098.70   7
   2   3  -3 70640.9 1673.78   4
   2   3  -3 70773.0 1607.63   5
   2  -3  -3 75911.6 2958.50   6
  -2   3   3 74200.3 2828.41   6
   1  -3  -2 5766.23 433.222   7
   1   3  -2 6896.14 444.886   5
   1   3  -2 9763.64 538.855   4
  -1  -3   2 7924.52 866.292   7
   1   3  -2 8233.38 654.989   6
  -1  -3   2 8169.49 685.495   6
   1   3  -2 7994.63 814.868   7
  -1  -3   2 8305.04 495.762   3
   1  -3  -2 8201.31 780.810   6
  -1   3   2 7650.90 749.213   6
   0  -3  -1 213298. 2945.57   6
   0   3  -1 211317. 2242.58   5
   0  -3   1 211432. 2166.05   3
   0  -3   1 207895. 3780.03   7
   0   3   1 206538. 3349.47   6
   0   3  -1 211368. 3455.40   7
   0   3   1 213062. 1914.47   5
   0   3  -1 213949. 1956.43   4
   0   3  -1 194307. 2146.16   6
  -1   3   0 107.116 77.2002   7
  -1  -3   0 17.8578 53.6062   7
  -1   3   0 51.6144 49.1571   5
  -1  -3   0 66.0583 38.0216   3
   1   3   0 141.464 86.7619   5
  -1   3   0 57.7102 36.9109   4
   2   3  -1 507525. 3658.29   5
   2   3  -1 518107. 3749.26   4
  -2   3   1 516862. 2538.68   5
  -2  -3   1 525921. 3131.02   3
  -2   3   1 512801. 2145.78   2
   2   3  -1 510520. 6524.06   7
  -2   3   1 517419. 4722.65   6
  -2  -3   1 522341. 2373.04   2
   2  -3  -1 513214. 6391.28   6
  -2  -3   1 506796. 5359.82   7
  -2  -3   1 504164. 3123.94   6
  -3  -3   2 3965.50 571.756   7
  -3   3   2 3394.23 152.679   5
   3  -3  -2 3953.52 646.899   6
   3   3  -2 4192.69 703.615   7
  -3   3   2 3927.02 327.129   7
  -3  -3   2 4447.11 352.291   3
   3   3  -2 4006.65 348.073   5
  -3   3   2 3775.81 185.795   3
  -3  -3   2 4273.46 289.597   2
  -3  -3   2 4480.57 459.572   6
  -3   3   2 4317.29 567.392   6
   3   3  -2 3853.59 367.315   4
  -3   3   2 4417.78 288.260   2
   3   3  -2 4283.73 698.292   6
   4   3  -3 182752. 2975.98   4
  -4  -3   3 182791. 2392.42   2
   4   3  -3 186796. 2796.33   5
  -4   3   3 193746. 4441.89   6
  -4   3   3 185550. 2370.74   2
   4   3  -3 197763. 5514.67   7
  -4  -3   3 182380. 3767.93   6
  -4  -3   3 185324. 2672.39   3
   4   3  -3 192096. 5414.01   6
  -4   3   3 189864. 1920.96   3
  -4  -3   3 195255. 4822.44   7
   4  -3  -3 195342. 5514.10   6
  -4   3   3 193728. 3389.98   7
  -5  -3   4-114.426 146.270   3
   5   3  -4 707.391 598.216   6
  -5   3   4 6.03511 145.265   2
   5   3  -4-100.786 171.199   5
   5   3  -4 488.836 268.442   4
  -5  -3   4-46.9211 133.065   2
  -5  -3   4-41.7592 219.308   6
   6   3  -5 152442. 3655.62   4
   6   3  -5 149743. 3157.00   5
  -6  -3   5 144300. 3066.99   3
   7   3  -6-43.3954 301.094   5
   7   3  -6-437.149 399.440   4
  -7  -3   6 487.857 365.800   3
  -8  -3   7 26480.0 1723.54   3
   8   3  -7 30814.4 2260.34   4
   6   5  -7-198.999 471.482   4
  -6  -5   7 876.220 463.899   3
   5   5  -6-36.4379 300.362   5
  -5  -5   6 855.997 404.169   3
   5   5  -6 134.474 339.887   4
   4   5  -5 3660.00 601.324   5
  -4  -5   5 2907.88 559.404   3
   4   5  -5 2625.76 602.824   4
  -3  -5   4 796.900 306.808   3
   3   5  -4 539.885 267.756   4
   3   5  -4 792.118 304.080   5
   2   5  -3 35413.2 1380.23   5
  -2  -5   3 32746.4 1380.56   3
   2   5  -3 36119.8 1412.15   4
  -1  -5   2 3034.61 389.415   3
   1   5  -2 3393.87 398.071   4
   1   5  -2 2975.68 399.873   5
   1   5  -2 3114.33 669.442   7
  -1  -5   2 2405.61 576.421   7
   0   5  -1 113177. 3243.05   7
   0   5  -1 112540. 2063.76   5
   0   5   1 109923. 1956.66   5
   0   5  -1 114368. 1856.76   4
   1   5   0 220.949 142.675   5
  -1   5   0 255.231 131.937   5
  -2   5   1 267534. 2651.30   5
  -2  -5   1 263871. 2710.80   3
   2   5  -1 264841. 3672.97   4
   2   5  -1 268746. 3467.62   5
   2   5  -1 273046. 6397.32   7
   3   5  -2 1735.34 371.233   4
   3   5  -2 1297.41 311.618   5
  -3  -5   2 1496.67 267.720   3
  -3  -5   2 1708.18 456.343   7
   3   5  -2 1293.92 556.688   7
   4   5  -3 119626. 2943.43   4
   4   5  -3 112711. 2622.84   5
  -4  -5   3 118295. 2446.84   3
   5   5  -4 44.4856 295.095   5
  -5  -5   4 133.942 185.231   3
   5   5  -4-263.081 261.676   4
   6   5  -5 101321. 3043.00   5
   6   5  -5 98460.7 3393.76   4
  -6  -5   5 97467.0 2811.73   3
   7   5  -6-86.4088 339.712   5
  -7  -5   6 258.551 316.718   3
   7   5  -6-319.614 480.869   4
   8   5  -7 19983.6 2019.58   4
  -8  -5   7 19388.4 1596.79   3
  -5  -7   6-729.200 498.692   3
   5   7  -6 825.913 657.126   4
   4   7  -5 821.615 433.116   5
   4   7  -5 572.762 463.202   4
   3   7  -4 723.375 360.626   5
   2   7  -3 27209.7 1495.92   5
   1   7  -2 3522.27 571.690   5
   0   7  -1 105961. 2503.60   5
   1   7   0 515.125 253.887   5
  -1   7   0 403.211 236.166   5
   2   7  -1 112739. 2775.45   5
   3   7  -2 2571.10 519.489   5
   4   7  -3 69595.3 2542.27   5
   5   7  -4 42.4501 341.262   5
   6   7  -5 68839.6 2914.75   5
  -7  -7   6-323.271 375.189   3
   7   7  -6-635.495 837.441   4
   1   9  -2-236.631 341.275   5
   3   9  -2-698.387 457.066   5
  -6   0   8 38658.9 2458.95   3
   6   0  -8 40271.6 2415.64   4
   5   0  -7-486.558 388.858   4
  -5   0   7 357.008 404.927   3
  -4   0   6 50188.2 2059.43   3
   4   0  -6 47541.1 1840.79   4
  -3   0   5 89.3961 186.775   3
   3   0  -5 37.0938 172.545   4
   2   0  -4 5407.11 824.685   7
   2   0  -4 5008.86 354.329   5
  -2   0   4 5426.59 952.504   7
  -2   0   4 4365.67 479.535   3
   2   0  -4 5002.89 449.468   4
   1   0  -3-26.9343 97.6804   4
   1   0  -3 46.3897 142.739   7
   1   0  -3-15.4553 65.2080   5
  -1   0   3-171.420 145.983   3
  -1   0   3-259.426 247.897   6
  -1   0   3-281.357 236.765   7
   1   0  -3-63.7823 201.782   6
   0   0   2 96756.5 2656.54   7
   0   0  -2 101131. 1363.56   4
   0   0  -2 101185. 2449.27   7
   0   0  -2 96325.8 2376.16   6
   0   0   2 100181. 1551.73   3
   0   0   2 100785. 2566.88   6
   1   0   1 34.5843 56.0004   3
   1   0   1 30.8029 53.2769   6
  -1   0  -1 79.5659 82.5577   7
   1   0   1-75.6117 80.0743   7
  -1   0  -1 136.767 94.6465   6
  -3   0   1-60.3094 97.0359   7
  -3   0   1 48.2339 86.4547   6
   3   0  -1-56.4514 138.645   6
  -4   0   2 356148. 5296.69   6
   4   0  -2 347660. 3410.71   4
  -4   0   2 332696. 4801.01   7
  -4   0   2 344715. 2791.77   3
  -4   0   2 343590. 2872.24   2
   4   0  -2 347730. 5884.78   7
   4   0  -2 339961. 6077.45   6
  -5   0   3 121.705 133.774   3
  -5   0   3 77.1207 201.625   7
  -5   0   3-60.4322 131.534   2
   5   0  -3 684.224 285.781   5
  -5   0   3-178.937 221.728   6
   5   0  -3 1088.46 680.949   7
   5   0  -3 377.909 645.621   6
   5   0  -3 1192.53 415.920   4
   6   0  -4 847008. 6483.45   5
  -6   0   4 839820. 5792.58   3
  -6   0   4 835082. 6030.37   2
   6   0  -4 849723. 7135.57   4
  -7   0   5-27.0757 153.572   3
  -7   0   5 61.7712 177.803   2
   7   0  -5-267.030 259.160   4
   8   0  -6 114125. 3561.21   4
  -8   0   6 117961. 2891.76   2
  -8   0   6 122437. 2888.00   3
  -9   0   7-184.374 257.409   3
   9   0  -7 1133.05 560.817   4
  10   0  -8 75992.9 4014.56   4
 -10   0   8 74942.5 3009.70   3
   6   2  -8 8965.86 1201.68   4
  -6  -2   8 12140.0 1449.88   3
   5   2  -7 308.895 387.912   4
  -5  -2   7 440.490 413.604   3
   4   2  -6 2388.47 512.765   4
   4   2  -6 2530.99 424.428   5
  -4  -2   6 2531.05 554.429   3
  -4   2   6 3389.93 613.345   3
   3  -2  -5 280.635 180.389   4
   3   2  -5 352.693 209.489   4
   3   2  -5 40.7853 161.401   5
  -3  -2   5 276.737 247.045   3
  -3   2   5 262.328 223.650   3
   2   2  -4 1057.98 227.609   5
   2   2  -4 1163.00 266.780   4
  -2  -2   4 588.719 300.197   6
  -2   2   4 1076.53 241.120   3
   2  -2  -4 914.732 375.902   7
  -2  -2   4 1061.72 311.372   3
   2  -2  -4 943.686 202.424   4
   2   2  -4 1028.03 419.864   6
  -2   2   4 824.486 390.940   7
   1   2  -3 7652.98 813.963   6
  -1  -2   3 7475.89 559.780   3
   1  -2  -3 7385.77 396.871   4
   1   2  -3 7391.54 475.542   5
   1  -2  -3 7429.38 883.438   6
  -1   2   3 8007.91 531.222   3
   1  -2  -3 7200.70 675.987   7
   1   2  -3 8383.46 950.714   7
  -1  -2   3 7501.80 991.862   7
  -1   2   3 7863.34 903.414   7
   1   2  -3 7540.63 510.134   4
  -1  -2   3 8119.91 891.835   6
  -1   2   3 6751.89 854.062   6
   0  -2  -2 23990.6 1291.67   6
   0  -2   2 23759.9 1263.41   6
   0   2  -2 23582.2 782.029   5
   0   2  -2 23408.8 1332.69   7
   0  -2  -2 23712.4 949.357   7
   0  -2   2 23828.1 1505.81   7
   0  -2   2 23461.2 855.024   3
   0   2  -2 23515.8 749.886   4
   0  -2  -2 23925.6 534.699   4
   0   2  -2 23568.4 1151.02   6
   0   2   2 22922.8 1327.01   6
  -1  -2  -1 25831.6 1033.63   6
  -1   2  -1 26032.6 714.143   5
  -1   2  -1 24430.8 1132.13   7
   1  -2   1 24503.5 1356.68   7
   1   2   1 26371.1 1297.71   6
   1  -2   1 27350.1 834.581   3
  -1   2  -1 26515.2 662.072   4
  -1   2  -1 26219.3 907.901   6
   2   2   0 48859.8 965.221   5
  -2  -2   0 48641.4 1720.97   7
   3   2  -1 7209.78 424.036   5
   3   2  -1 7435.55 862.271   7
  -3  -2   1 6804.84 359.921   3
   3   2  -1 7465.45 503.095   4
  -3  -2   1 6564.33 615.077   7
   3  -2  -1 7526.57 974.756   6
  -3  -2   1 7140.74 654.874   6
  -3   2   1 7141.92 652.895   6
  -4  -2   2 10595.9 833.437   6
   4   2  -2 10160.1 565.404   5
   4   2  -2 9922.41 1157.19   6
  -4  -2   2 10980.2 538.927   3
  -4   2   2 9990.20 711.290   7
  -4  -2   2 10959.1 504.489   2
   4  -2  -2 9535.07 1104.67   6
  -4   2   2 10772.8 491.969   2
  -4   2   2 11017.6 423.017   3
   4   2  -2 10668.8 1130.07   7
  -4  -2   2 10259.0 908.329   7
   4   2  -2 10103.5 627.465   4
  -4   2   2 10127.1 882.676   6
  -5  -2   3 2003.01 280.741   3
  -5   2   3 1677.71 238.061   2
  -5  -2   3 1964.09 482.396   7
   5  -2  -3 1559.03 309.014   4
   5   2  -3 2026.29 295.549   5
  -5   2   3 1860.67 217.541   3
   5  -2  -3 1795.07 591.719   7
   5   2  -3 1923.09 556.864   7
  -5   2   3 1702.63 351.467   7
   5   2  -3 1493.18 507.153   6
   5  -2  -3 2478.90 686.876   6
  -5  -2   3 1924.69 257.444   2
  -5  -2   3 1694.08 425.776   6
  -5   2   3 1844.31 462.821   6
   5   2  -3 1731.90 328.859   4
   6   2  -4 202128. 3189.52   5
   6  -2  -4 195593. 6379.27   7
  -6   2   4 203197. 2558.43   3
  -6  -2   4 194883. 3013.03   3
   6  -2  -4 200065. 3761.90   4
  -6   2   4 200588. 4472.98   7
   6   2  -4 200483. 3641.82   4
  -6  -2   4 199511. 2938.51   2
  -6   2   4 198185. 2888.46   2
   7   2  -5-641.011 295.557   4
   7   2  -5-520.023 288.546   5
  -7   2   5-196.683 160.059   3
  -7  -2   5-327.487 243.899   2
  -7   2   5 196.461 168.386   2
   7  -2  -5-818.570 377.976   4
  -7  -2   5 25.8113 195.647   3
   8   2  -6 10363.9 980.890   5
  -8  -2   6 8189.95 807.579   3
   8   2  -6 12124.8 1261.08   4
  -8   2   6 10088.3 809.743   3
  -9  -2   7 1313.62 465.829   3
   9   2  -7-74.5219 549.200   4
 -10  -2   8 24196.9 1972.47   3
  10   2  -8 28693.5 2605.30   4
   5   4  -7 15.3535 385.317   5
  -5  -4   7 191.714 401.520   3
   5   4  -7 249.600 466.434   4
   4   4  -6 22652.1 1534.40   4
   4   4  -6 23710.3 1415.87   5
  -4  -4   6 23083.7 1623.37   3
   3   4  -5 168.665 230.773   4
   3   4  -5 96.3460 194.419   5
   2   4  -4 24469.1 1140.19   5
   2   4  -4 24041.9 1183.03   4
  -2  -4   4 27134.2 1374.52   3
   1   4  -3 52.4807 164.498   4
   1   4  -3 163.276 147.629   5
  -1  -4   3 253.721 220.963   3
   1  -4  -3-59.0225 232.908   6
  -1   4   3 317.894 254.330   6
   0   4  -2 30288.8 1050.82   5
   0   4  -2 30531.8 973.380   4
   0   4  -2 31540.3 1746.74   7
   0  -4   2 30095.2 1988.24   7
   0  -4   2 29466.5 1140.46   3
   0   4  -2 32259.6 1279.44   6
   0  -4  -2 30551.0 1556.41   6
   0   4   2 28150.5 1747.91   6
   1   4   1 186.289 145.221   5
   1  -4   1 107.239 112.629   3
  -1   4  -1-44.3999 74.0236   4
  -1   4  -1 107.557 103.194   5
  -1   4  -1-75.4146 168.303   7
   1  -4   1-191.971 250.041   7
  -1  -4  -1 240.972 115.705   6
  -2  -4   0 431845. 2383.17   3
  -2   4   0 422129. 2294.72   4
   2   4   0 429059. 4172.58   5
  -2   4   0 428135. 3465.71   5
  -2  -4   0 416163. 4134.54   7
  -2   4   0 425539. 3971.22   7
   3   4  -1-105.420 308.388   7
   3   4  -1-25.5440 178.561   4
  -3  -4   1 81.5316 57.9548   2
  -3  -4   1 36.5798 76.5304   3
   3   4  -1-21.6544 115.518   5
  -3   4   1 32.6992 66.6621   5
  -3   4   1-21.5470 35.5430   2
  -3  -4   1-189.901 171.084   7
  -3  -4   1 24.2453 36.4137   6
  -3   4   1-21.0206 103.317   6
   4   4  -2 167771. 2775.95   5
  -4  -4   2 175387. 2375.42   3
   4   4  -2 167888. 3127.90   4
  -4  -4   2 172857. 4130.38   7
   4  -4  -2 171937. 5618.93   6
  -4  -4   2 176372. 1952.96   2
   4   4  -2 173157. 5491.41   7
  -4   4   2 180340. 3835.40   6
  -4   4   2 172783. 1828.13   2
  -5  -4   3 11.1659 111.149   2
  -5   4   3-70.8578 114.706   2
  -5  -4   3 136.093 151.724   3
   5   4  -3-77.6200 194.589   5
   5  -4  -3 159.027 498.164   6
   5   4  -3-15.1015 203.894   4
  -5   4   3-226.277 332.774   6
  -6  -4   4 456452. 4462.84   2
  -6   4   4 466116. 4421.33   2
  -6  -4   4 450963. 4947.89   3
   6   4  -4 452952. 6226.83   4
   7   4  -5 340.651 316.566   5
  -7  -4   5-5.44467 213.850   3
   7   4  -5 308.498 346.709   4
   8   4  -6 62674.7 2586.78   5
  -8  -4   6 62389.4 2389.02   3
   8   4  -6 64205.7 3085.63   4
   9   4  -7 283.108 499.500   4
  -9  -4   7-29.3187 327.808   3
   4   6  -6 2382.75 698.034   4
   4   6  -6 2322.99 575.135   5
  -4  -6   6 1585.04 552.961   3
   3   6  -5 198.779 370.043   4
   3   6  -5 370.448 344.045   5
  -3  -6   5 455.706 415.185   3
   2   6  -4 1506.42 409.544   4
   2   6  -4 1432.85 358.410   5
  -2  -6   4 1820.87 475.772   3
   1   6  -3 4751.23 556.836   4
   1   6  -3 5069.05 592.155   5
  -1  -6   3 4259.65 597.637   3
   0   6  -2 5495.17 589.272   5
  -1   6  -1 3123.48 406.626   5
   2   6   0 28678.7 1480.01   5
  -2   6   0 29116.9 1279.52   5
   3   6  -1 883.822 304.431   5
   4   6  -2 5134.75 614.466   5
   5   6  -3 543.656 328.055   5
  -5  -6   3 406.819 216.405   3
   5   6  -3 517.529 338.427   4
   6   6  -4 77253.0 2682.32   5
   6   6  -4 82720.2 3333.31   4
  -6  -6   4 78027.1 2369.21   3
   7   6  -5-318.930 396.222   5
  -7  -6   5 303.419 274.207   3
   7   6  -5 223.139 441.670   4
   8   6  -6 4680.60 1032.63   4
  -8  -6   6 4051.51 747.671   3
   2   8  -4 1349.07 402.677   5
   1   8  -3 468.422 298.853   5
   0   8  -2 9160.51 891.507   5
  -1   8  -1 479.389 304.594   5
   3   8  -1-173.247 385.894   5
   4   8  -2 62720.0 2625.37   5
   5   8  -3 104.661 431.529   5
   5   1  -8-683.644 497.660   4
  -5  -1   8 442.159 664.506   3
  -4  -1   7 101804. 3598.32   3
   4  -1  -7 100749. 3036.16   4
   4   1  -7 100113. 3144.39   4
  -4   1   7 103815. 3654.36   3
   3  -1  -6-154.765 237.334   4
   3   1  -6-341.390 296.483   4
  -3  -1   6 57.8284 325.258   3
  -3   1   6-263.567 337.399   3
   2   1  -5 19594.3 865.969   5
   2  -1  -5 19130.2 955.155   4
   2   1  -5 18374.7 1015.83   4
  -2  -1   5 19060.3 1178.83   3
  -2   1   5 20365.8 1216.65   3
   1   1  -4-78.8547 124.340   5
  -1  -1   4-225.866 193.013   3
  -1   1   4-192.329 223.702   3
   1  -1  -4 67.9749 208.402   7
  -1   1   4 213.777 288.731   7
   1  -1  -4-129.055 140.618   4
   1   1  -4-104.098 136.886   4
   0   1  -3 120440. 1787.45   5
   0   1   3 116075. 3859.13   7
   0   1  -3 121727. 3491.47   7
   0  -1  -3 112630. 2978.10   7
   0  -1   3 121468. 4002.38   7
   0  -1   3 116737. 2247.38   3
   0   1  -3 116014. 1904.65   4
   0  -1  -3 111435. 1653.49   4
   0   1  -3 124252. 3421.66   6
   0  -1  -3 114992. 3396.10   6
   0   1   3 118979. 3655.51   6
   0  -1   3 121377. 3602.91   6
   0   1   3 116644. 2258.07   3
  -1   1  -2 36352.6 1703.09   7
  -1  -1  -2 34216.8 1496.67   7
   1  -1   2 36088.6 1948.68   7
   1  -1   2 38032.9 1161.19   3
  -1   1  -2 38484.5 972.122   4
  -1  -1  -2 37401.9 1607.53   6
  -1   1  -2 35683.7 1521.67   6
   1   1   2 33320.3 1696.42   6
   1  -1   2 35897.7 1730.30   6
   5   1  -2 319.563 402.083   6
   5   1  -2 88.3975 82.2098   5
   5   1  -2 126.413 190.499   7
  -5  -1   2 77.0572 83.0436   3
   5   1  -2 179.776 196.574   4
  -5  -1   2 164.274 180.547   7
   5  -1  -2 13.4965 285.625   6
  -5   1   2-118.951 156.740   6
  -5  -1   2-68.0765 104.612   6
  -5   1   2-52.7081 140.141   7
   6   1  -3 79281.5 1873.70   5
  -6   1   3 84386.3 1610.35   3
  -6  -1   3 80132.7 1688.87   3
  -6  -1   3 83867.3 1740.64   2
  -6   1   3 82157.9 1697.75   2
   6  -1  -3 80288.2 2284.13   4
   6  -1  -3 82157.9 3962.38   7
   6   1  -3 84643.1 3863.34   7
   6   1  -3 80598.7 2174.85   4
  -6   1   3 81216.3 2782.44   7
  -6  -1   3 81007.4 2995.52   7
   6   1  -3 84763.3 4058.15   6
   6  -1  -3 80694.3 3914.71   6
  -6  -1   3 84816.9 3032.13   6
  -6   1   3 83241.2 3077.97   6
  -7   1   4 103.455 116.536   2
  -7   1   4-27.5836 122.281   3
  -7  -1   4 187.380 161.485   3
   7  -1  -4-17.1309 356.138   7
   7   1  -4-266.119 218.594   5
  -7   1   4 463.774 312.359   7
   7  -1  -4 22.8624 206.920   4
   7   1  -4-338.325 266.458   4
  -7  -1   4 57.8615 139.713   2
   8   1  -5 127378. 3331.72   5
  -8  -1   5 132019. 2745.81   3
  -8   1   5 131700. 2520.17   3
   8  -1  -5 133597. 3722.26   4
   8   1  -5 123565. 3501.76   4
  -8  -1   5 135828. 2787.35   2
  -8   1   5 133167. 2741.34   2
   9   1  -6 412.993 456.668   4
  -9  -1   6 365.287 246.613   2
  -9   1   6 329.080 207.612   2
  -9  -1   6 563.390 281.555   3
  -9   1   6-45.9633 213.923   3
   9  -1  -6-209.949 448.590   4
  10  -1  -7 25150.8 2194.37   4
  10   1  -7 25049.6 2119.38   4
 -10  -1   7 25524.7 1586.33   3
 -10   1   7 27404.7 1544.30   3
 -11  -1   8 639.060 431.856   3
  11   1  -8 1359.41 912.508   4
   4   3  -7 91547.8 3286.63   4
  -4  -3   7 89782.9 3555.07   3
   3   3  -6 265.078 263.320   4
   3   3  -6 799.844 322.865   5
  -3  -3   6-89.7132 300.937   3
   2   3  -5 42231.1 1513.26   5
   2   3  -5 40268.3 1651.62   4
  -2  -3   5 40250.7 1873.55   3
   1   3  -4 755.648 233.228   4
   1   3  -4 940.840 247.181   5
  -1  -3   4 813.146 313.000   3
   1   3  -4 631.011 353.799   6
  -1  -3   4 765.629 394.889   6
   0   3  -3 37563.5 1190.21   5
   0   3  -3 35965.1 1765.04   6
   0  -3  -3 37359.8 1450.96   7
   0   3  -3 40715.6 2188.34   7
   0  -3   3 42393.5 2628.41   7
   0  -3  -3 38330.1 845.300   4
   0  -3   3 39064.3 1454.57   3
   0   3  -3 40075.2 1235.29   4
   0  -3  -3 35789.2 1972.12   6
   0   3   3 40731.7 2313.87   6
   0  -3   3 35678.7 2102.84   6
   1   3   2 9768.86 1047.59   6
  -1   3  -2 9377.21 556.857   5
  -1   3  -2 8746.12 891.198   7
  -1  -3  -2 9703.44 592.723   7
   1  -3   2 9174.03 1133.22   7
  -1   3  -2 9602.09 521.775   4
  -1  -3  -2 9220.48 817.724   6
  -1   3  -2 9577.99 705.880   6
  -1  -3  -2 9920.74 336.511   4
   1  -3   2 9239.24 655.503   3
  -2   3  -1 5352.79 371.594   4
  -2   3  -1 4866.99 404.653   5
  -2   3  -1 4726.86 649.220   7
  -2  -3  -1 5803.11 562.500   6
   3   3   0 5515.07 451.003   5
  -3  -3   0 5400.86 601.047   7
  -3   3   0 6281.56 672.569   7
   4   3  -1 14104.7 724.810   5
  -4  -3   1 14865.5 599.158   3
  -4  -3   1 14295.6 1025.24   7
  -4   3   1 15667.9 1051.71   6
  -5  -3   2 1570.86 229.125   3
   5   3  -2 1871.66 296.367   5
  -5  -3   2 1829.26 443.606   7
  -5   3   2 1658.88 202.009   2
  -5  -3   2 1628.59 212.561   2
   5   3  -2 2170.55 698.895   7
  -5   3   2 1794.25 327.311   7
   5  -3  -2 1077.28 573.577   6
   5   3  -2 1779.13 355.261   4
  -5  -3   2 1645.13 341.912   6
  -5   3   2 1875.30 416.191   6
   6   3  -3 59967.5 1773.99   5
  -6   3   3 66501.3 1184.41   3
  -6  -3   3 64359.1 1597.41   3
  -6  -3   3 67386.2 1534.99   2
  -6   3   3 63558.9 1453.45   2
   6   3  -3 67900.0 2197.25   4
  -6   3   3 65945.4 2055.16   7
   6  -3  -3 67642.7 3955.74   6
  -6  -3   3 64296.4 2411.81   6
  -6   3   3 59891.5 2640.44   6
  -7  -3   4 601.309 225.096   3
   7   3  -4 535.030 227.196   5
  -7  -3   4 549.348 191.635   2
  -7   3   4 689.671 197.146   2
   7   3  -4 633.137 345.082   4
   8   3  -5 90754.6 2721.83   5
  -8   3   5 86520.9 2198.17   2
  -8  -3   5 90682.9 2399.69   3
   8   3  -5 88749.4 3189.42   4
  -8  -3   5 92796.5 2307.77   2
   9   3  -6 357.040 360.536   5
  -9  -3   6 138.198 207.157   2
  -9  -3   6 208.523 221.871   3
   9   3  -6 832.971 570.045   4
  10   3  -7 30069.7 2510.57   4
 -10  -3   7 30499.5 1826.63   3
   4   5  -7 61353.9 3065.10   4
  -4  -5   7 63910.1 3311.90   3
   3   5  -6 24.3336 321.390   4
   3   5  -6 137.319 272.527   5
  -3  -5   6-691.222 468.596   3
   2   5  -5 28300.5 1463.14   5
   2   5  -5 25910.0 1509.69   4
  -2  -5   5 30763.1 1873.99   3
   1   5  -4 1020.09 295.242   4
   1   5  -4 849.078 287.824   5
  -1  -5   4 1333.47 445.220   3
   0   5  -3 19770.6 1015.46   5
   0   5  -3 18014.8 929.738   4
   0  -5   3 19977.2 1245.37   3
   1  -5   2 101.620 224.529   3
  -1   5  -2 181.910 139.571   4
  -1   5  -2 130.419 140.325   5
  -1   5  -2-139.153 201.307   7
   1  -5   2 139.409 332.868   7
  -2   5  -1 1235.25 226.264   4
  -2   5  -1 1422.41 427.634   5
  -2   5  -1 1160.11 394.379   7
   3   5   0-200.402 174.525   5
  -3   5   0 36.9452 110.678   5
   4   5  -1 5673.27 572.186   5
  -4   5   1 6500.94 415.536   5
  -4  -5   1 6581.46 416.849   3
  -5  -5   2 1892.73 284.729   3
   5   5  -2 1547.37 361.311   5
   5   5  -2 1153.77 401.363   4
   5   5  -2 1765.64 842.504   7
  -5  -5   2 1911.97 479.622   7
   6   5  -3 24272.9 1319.06   5
  -6  -5   3 27518.1 1151.46   3
   6   5  -3 26212.7 1671.57   4
   7   5  -4 175.307 273.566   5
  -7  -5   4-7.21228 185.109   3
   7   5  -4-178.658 407.029   4
   8   5  -5 56790.1 2459.86   5
  -8  -5   5 53555.9 2033.03   3
   8   5  -5 50962.7 2986.18   4
   9   5  -6-446.028 393.322   5
   9   5  -6 389.877 475.127   4
  -9  -5   6-588.494 418.059   3
 -10  -5   7 18464.0 1569.72   3
   3   7  -6-275.700 490.724   4
  -3  -7   6-97.1614 528.454   3
   2   7  -5 11983.7 1195.18   5
   1   7  -4-252.627 267.605   5
   0   7  -3 20926.8 1268.81   5
  -1   7  -2 2177.05 390.400   5
  -2   7  -1 4233.31 710.853   5
   3   7   0 627.666 369.837   5
  -3   7   0 612.645 223.671   5
   4   7  -1 11439.4 1006.48   5
   5   7  -2 71.4248 329.323   5
   6   7  -3 19588.1 1467.47   5
   7   7  -4 1306.61 603.783   5
  -9  -7   6 606.857 432.420   3
  -1   9  -2 619.201 403.443   5
   5   9  -2 768.419 614.388   5
   4   0  -8 74100.3 3032.77   4
  -4   0   8 70857.0 3745.94   3
   3   0  -7-190.150 320.506   4
  -3   0   7 477.829 463.108   3
   2   0  -6 152337. 3207.33   4
  -2   0   6 153865. 4071.87   3
   1   0  -5 176.508 167.490   4
  -1   0   5 34.5606 246.350   3
   0   0  -4 474584. 3596.55   5
   0   0   4 486104. 9661.59   7
   0   0  -4 491284. 4340.89   4
   0   0   4 472063. 5500.66   3
   1   0   3 3496.37 512.434   3
  -1   0  -3 138.854 269.549   7
   1   0   3 3402.76 853.012   7
  -1   0  -3 255.337 231.445   6
   1   0   3 1332.56 603.784   6
  -2   0  -2 597291. 7501.08   7
  -2   0  -2 591289. 6910.30   6
   2   0   2 598887. 8019.26   6
  -7   0   3-112.810 96.5781   3
  -7   0   3-161.315 127.902   2
   7   0  -3 62.4751 328.760   7
  -7   0   3 104.729 265.928   7
   7   0  -3-228.090 253.658   4
   7   0  -3 222.955 300.976   6
  -7   0   3-29.2330 213.087   6
  -8   0   4 50854.2 1507.40   3
  -8   0   4 51508.0 1599.62   2
   8   0  -4 51177.1 2233.88   4
  -9   0   5-99.9571 158.561   3
   9   0  -5-170.243 369.211   4
  -9   0   5 233.687 208.344   2
 -10   0   6 23965.5 1292.02   3
  10   0  -6 20853.4 1799.34   4
 -10   0   6 24966.6 1352.51   2
 -11   0   7-588.571 374.759   2
 -11   0   7-62.8890 300.993   3
 -12   0   8 64797.3 2766.45   3
   4   2  -8 24979.7 1882.73   4
  -4  -2   8 27317.1 2346.77   3
   3   2  -7 661.169 309.711   4
  -3  -2   7 317.116 445.016   3
   2   2  -6 30983.8 1325.99   5
   2   2  -6 31666.1 1577.54   4
  -2  -2   6 30044.2 1866.83   3
  -2   2   6 31337.2 2044.07   3
  -1   2   5 640.586 338.497   3
   1  -2  -5 416.768 154.857   4
   1   2  -5-24.0778 199.889   4
   1   2  -5 445.638 178.307   5
   0   2  -4 46546.3 1361.89   5
   0  -2  -4 45903.5 2148.76   7
   0  -2  -4 47295.9 1237.87   4
   0   2  -4 45930.3 1458.85   4
   0  -2   4 43987.7 1772.27   3
  -1   2  -3 9627.66 589.299   5
  -1   2  -3 10068.0 1078.19   7
  -1  -2  -3 9919.18 863.483   7
   1  -2   3 11153.5 1367.10   7
  -1   2  -3 10211.4 604.081   4
  -1  -2  -3 9388.98 972.024   6
  -1  -2  -3 10018.5 486.514   4
  -1   2  -3 10394.0 950.004   6
   1  -2   3 9679.47 754.234   3
   1   2   3 10517.4 1226.12   6
   1  -2   3 9055.47 1099.22   6
  -2   2  -2 58909.6 2422.02   7
   2  -2   2 60111.4 3119.68   7
  -2   2  -2 58045.6 1339.60   4
  -2  -2  -2 59881.6 2202.53   6
  -2   2  -2 59698.1 2069.50   6
   2   2   2 62121.8 2798.40   6
   2  -2   2 62666.1 1897.16   3
  -6  -2   2 564.289 171.119   3
   6   2  -2 358.179 123.888   5
   6   2  -2-12.5309 291.965   7
  -6  -2   2 668.646 297.792   7
   6   2  -2 554.837 270.718   4
  -6   2   2 440.953 255.116   6
   7   2  -3 155.953 189.725   5
  -7   2   3 104.566 120.096   3
  -7  -2   3 71.1438 110.362   3
  -7  -2   3 268.037 143.373   2
  -7   2   3 74.2269 112.440   2
   7   2  -3 99.7210 313.370   7
  -7   2   3 194.732 165.138   7
  -7  -2   3 144.466 214.868   7
   7  -2  -3-126.208 437.964   6
   7   2  -3 172.316 209.702   4
  -7  -2   3 219.809 184.069   6
  -7   2   3-40.9342 193.200   6
   8   2  -4 575.280 280.098   5
  -8   2   4 105.194 107.764   3
  -8  -2   4 240.836 175.114   3
  -8  -2   4 601.579 215.086   2
  -8   2   4 598.722 245.494   2
   8   2  -4 105.417 296.383   4
  -8   2   4 413.658 255.205   7
   9   2  -5-289.780 340.860   5
  -9   2   5 79.2549 181.571   3
  -9  -2   5 325.804 250.689   3
  -9  -2   5 74.5351 198.881   2
  -9   2   5 53.3860 185.301   2
   9   2  -5-587.368 510.159   4
 -10  -2   6 481.546 309.509   2
 -10  -2   6 587.551 288.446   3
 -10   2   6 436.386 230.447   3
 -10   2   6 344.720 240.710   2
  10   2  -6 31.4830 424.981   4
 -11  -2   7 1531.31 458.521   2
 -11  -2   7 1153.39 413.256   3
  11   2  -7 662.402 604.896   4
 -12  -2   8 19693.4 1621.01   3
   3   4  -7-461.516 510.089   4
   3   4  -7 493.691 407.606   5
  -3  -4   7 54.8027 442.677   3
   2   4  -6 122789. 3094.28   5
   2   4  -6 124167. 3431.69   4
  -2  -4   6 127032. 4167.95   3
   1   4  -5 621.306 299.750   4
   1   4  -5 193.976 212.281   5
  -1  -4   5 711.338 406.607   3
   0   4  -4 180680. 3101.08   5
   0   4  -4 175259. 3075.94   4
   0  -4   4 180400. 4007.97   3
  -1   4  -3 850.262 221.640   4
  -1   4  -3 893.151 220.237   5
   1  -4   3 1127.74 375.007   3
  -1  -4  -3 977.820 424.466   6
   1   4   3 1368.53 476.609   6
  -2   4  -2 285654. 3452.78   5
  -2   4  -2 286711. 5461.52   7
   2  -4   2 278589. 7831.51   7
  -2   4  -2 276638. 3004.91   4
  -2  -4  -2 285836. 4844.49   6
  -2   4  -2 293913. 3829.88   6
   2  -4   2 285197. 4649.60   3
  -3   4  -1 638.062 146.443   4
  -3   4  -1 704.857 185.431   5
  -3   4  -1 996.394 298.742   7
  -3  -4  -1 574.326 196.686   6
   4   4   0 210289. 3716.87   5
  -4  -4   0 210805. 3953.74   7
  -4   4   0 214603. 4221.18   7
  -5  -4   1 78.3918 82.4837   3
   5   4  -1-30.8487 151.818   5
  -5  -4   1 55.9284 151.220   7
  -5   4   1-3.93085 169.313   6
   6   4  -2 771.911 268.649   5
  -6  -4   2 782.363 181.624   3
  -6  -4   2 788.739 165.528   2
  -6   4   2 909.659 180.846   2
  -6  -4   2 894.980 331.240   7
  -6   4   2 771.846 267.461   6
  -7  -4   3 44.0687 138.319   3
   7   4  -3-150.398 220.967   5
   7   4  -3-36.3259 284.032   4
  -7  -4   3 24.5599 128.706   2
  -7   4   3 14.2903 121.454   2
  -7   4   3-39.5451 220.412   6
   8   4  -4 17504.4 1239.87   5
  -8  -4   4 18097.0 1028.98   3
   8   4  -4 18633.0 1603.52   4
  -8  -4   4 17352.9 917.696   2
  -8   4   4 17402.9 911.003   2
   9   4  -5 434.120 483.942   5
  -9  -4   5 76.1746 200.424   2
  -9  -4   5 262.114 272.338   3
  -9   4   5-159.277 234.932   2
   9   4  -5 526.143 477.225   4
  10   4  -6 36223.8 2304.94   5
 -10  -4   6 35115.2 1773.57   3
 -10  -4   6 36357.8 1671.24   2
  10   4  -6 37658.2 2669.13   4
  11   4  -7-279.070 675.852   4
 -11  -4   7 435.611 470.947   3
   2   6  -6 15808.9 1316.48   5
   2   6  -6 15139.2 1421.10   4
  -2  -6   6 15847.8 1737.75   3
  -1  -6   5 23.8205 462.494   3
   1   6  -5 477.570 322.589   4
   1   6  -5 269.528 290.227   5
   0  -6   4 21973.7 1748.36   3
   0   6  -4 23577.6 1303.43   5
   0   6  -4 21886.6 1281.77   4
  -1   6  -3 1572.15 331.428   4
   1  -6   3 1178.13 474.587   3
  -1   6  -3 939.697 277.595   5
  -2   6  -2 26068.0 1189.86   5
  -3   6  -1 797.001 250.572   5
   4   6   0 22111.2 1435.61   5
  -4   6   0 18608.7 876.001   5
   5   6  -1 611.354 355.438   5
   6   6  -2 664.832 368.284   5
   7   6  -3 204.014 333.759   5
  -7  -6   3 1.44293 158.123   3
   8   6  -4 73.6043 308.153   5
  -8  -6   4 474.441 212.384   3
   9   6  -5 473.787 504.785   5
  -9  -6   5 826.202 401.093   3
 -10  -6   6 1288.16 478.215   3
  -1   8  -3-81.2344 360.199   5
  -2   8  -2 70944.0 2364.55   5
  -3   8  -1 24.5260 226.526   5
   5   8  -1 1791.61 643.539   5
   6   8  -2 1178.89 569.943   5
   7   8  -3-455.960 478.420   5
   3   1  -8-65.2751 383.771   4
  -3  -1   8 1140.52 767.190   3
  -2   1   7 72872.7 3658.95   3
   2  -1  -7 66031.5 2379.55   4
   2   1  -7 65012.8 2456.66   4
  -2  -1   7 67017.1 3338.49   3
  -1   1   6-25.9057 383.533   3
   1  -1  -6 518.648 250.480   4
   1   1  -6-113.170 255.287   4
  -1  -1   6 677.155 467.444   3
   0   1   5 75280.9 2898.50   3
   0   1  -5 70138.8 1673.57   5
   0  -1  -5 71016.0 1843.75   4
   0   1  -5 70980.8 1996.97   4
   0  -1   5 67724.4 2569.21   3
   1   1   4-260.893 308.395   3
  -1   1  -4-37.7768 150.799   4
  -1  -1  -4 84.9291 125.319   4
  -1   1  -4 91.7929 134.810   5
  -1  -1  -4 342.093 331.706   7
   1   1   4-76.9682 558.226   7
   1  -1   4 27.5497 232.235   3
   2  -1   3 643879. 6898.89   3
  -2   1  -3 657455. 8901.43   7
  -2  -1  -3 659444. 8372.47   7
   2  -1   3 665037. 11923.6   7
  -2   1  -3 651912. 4943.58   4
  -2  -1  -3 674710. 8562.13   6
  -2   1  -3 641792. 8158.24   6
  -2  -1  -3 656001. 4619.17   4
   2   1   3 661312. 10010.9   6
   2  -1   3 661528. 9986.17   6
  -9   1   4 1274.37 276.481   3
  -9  -1   4 1094.53 281.996   3
  -9  -1   4 1167.60 290.970   2
  -9   1   4 1286.02 294.626   2
   9   1  -4 1020.09 573.240   4
 -10  -1   5 4355.81 537.069   3
 -10   1   5 5125.55 547.436   3
 -10  -1   5 5560.54 625.238   2
 -10   1   5 4599.00 569.726   2
 -11  -1   6 343.096 208.023   3
 -11   1   6 899.479 319.723   3
 -11  -1   6 615.271 327.734   2
 -11   1   6 504.208 297.497   2
 -12  -1   7 2546.49 516.287   2
 -12  -1   7 2732.19 557.669   3
 -12   1   7 2877.51 522.524   3
 -12   1   7 3297.48 613.771   2
   2   3  -7 57964.6 2535.06   4
  -2  -3   7 60848.9 3294.25   3
   1   3  -6 1233.20 376.118   4
   1   3  -6 1411.02 333.883   5
  -1  -3   6 1689.86 600.652   3
   0   3  -5 29572.6 1284.12   5
   0   3  -5 29500.5 1391.23   4
   0  -3   5 27932.2 1787.34   3
  -1   3  -4 552.501 224.643   4
  -1   3  -4 221.831 154.910   5
   1  -3   4 103.999 301.560   3
   2  -3   3 612022. 7141.92   3
  -2   3  -3 605100. 5185.03   5
  -2  -3  -3 605188. 6817.99   7
  -2   3  -3 611940. 5029.75   4
  -2  -3  -3 616622. 8361.57   6
  -2   3  -3 625714. 7565.76   6
  -2  -3  -3 611861. 3836.45   4
   2   3   3 598363. 10533.2   6
  -3   3  -2 10158.2 1096.84   7
  -3   3  -2 10375.6 615.990   4
  -3  -3  -2 8928.42 925.294   6
   7   3  -2-168.928 243.217   5
   8   3  -3 59029.8 2204.82   5
  -8   3   3 54693.2 1583.20   2
  -8  -3   3 59067.4 1605.56   2
  -8  -3   3 58249.8 1667.32   3
  -8  -3   3 55674.3 2745.25   6
  -8   3   3 65533.1 3209.44   6
  -9  -3   4-158.753 204.156   3
   9   3  -4 215.413 350.651   5
  -9  -3   4-237.404 181.819   2
  -9   3   4-87.9358 163.591   2
   9   3  -4-103.607 387.299   4
 -10  -3   5 533.902 255.888   3
 -10  -3   5 255.146 239.519   2
 -10   3   5 436.781 246.727   2
 -11  -3   6-59.2651 228.105   3
 -11   3   6 368.295 311.270   2
 -11  -3   6 452.914 278.881   2
 -12  -3   7 818.196 455.528   3
  -2  -5   7 37515.4 2966.08   3
   2   5  -7 38963.7 2316.40   4
  -1  -5   6 651.205 629.263   3
   1   5  -6 24.5313 315.796   4
   1   5  -6 509.482 310.687   5
   0   5  -5 18023.8 1163.42   5
   0   5  -5 18409.2 1213.38   4
   0  -5   5 17061.4 1603.18   3
   1  -5   4 602.114 355.782   3
  -1   5  -4-100.894 224.330   4
  -1   5  -4 410.666 272.786   5
  -2   5  -3 332163. 4308.32   5
  -2   5  -3 333006. 4074.03   4
  -3   5  -2 1928.20 277.331   4
  -3   5  -2 2083.95 342.237   5
  -3   5  -2 2133.58 487.341   7
  -5   5   0 279.651 185.552   5
   6   5  -1 112894. 3177.08   5
  -6   5   1 108213. 1871.92   5
  -6  -5   1 108874. 1889.86   3
  -7  -5   2 1335.99 240.745   3
   7   5  -2 1468.02 427.912   5
   8   5  -3 24652.7 1557.26   5
  -8  -5   3 25539.6 1148.27   3
   9   5  -4 1833.94 1211.30   5
  -9  -5   4-349.917 227.086   3
  10   5  -5 1420.04 665.266   5
 -10  -5   5 82.4762 214.002   3
 -11  -5   6-373.781 375.075   3
   1   7  -6 87.9422 676.074   4
   0   7  -5 29461.7 1786.32   5
  -1   7  -4 492.758 397.298   5
  -2   7  -3 150583. 3401.44   5
  -3   7  -2 1539.84 384.914   5
  -5   7   0 38.0428 196.243   5
   7   7  -2 126.824 396.583   5
   8   7  -3 13235.5 1419.86   5
   9   7  -4 2200.92 829.755   5
  -3   9  -2-1038.22 381.207   5
   2   0  -8 4578.47 787.614   4
   1   0  -7 26.0727 284.693   4
  -1   0   7-692.625 772.730   3
   0   0   6 76170.2 3470.30   3
   0   0  -6 71752.9 2154.95   4
   1   0   5 425.055 447.982   3
  -1   0  -5-127.111 171.356   4
  -2   0  -4 191099. 2866.43   4
   2   2  -8 1504.84 548.917   4
  -2  -2   8 1298.43 759.868   3
  -1  -2   7 1747.07 749.867   3
   1   2  -7 1018.92 407.773   4
   0   2  -6 15524.7 930.388   5
   0   2  -6 16342.7 1125.16   4
   0  -2   6 15804.2 1565.31   3
  -1  -2  -5 1038.63 256.452   4
  -1   2  -5 2044.28 396.769   4
  -1   2  -5 2048.12 356.528   5
   2  -2   4 43001.9 2156.51   3
  -2   2  -4 43149.2 1390.91   5
  -2  -2  -4 45281.2 2301.15   7
  -2   2  -4 42704.5 1458.20   4
  -2  -2  -4 42904.9 1240.20   4
  -3   2  -3 4727.43 826.097   7
  -3   2  -3 4591.66 448.596   4
   1   4  -7 536.095 463.878   4
   1   4  -7 80.8802 282.459   5
   0   4  -6 32035.6 1557.34   5
   0   4  -6 34599.5 1779.27   4
   0  -4   6 37425.2 2657.63   3
   1  -4   5 235.390 518.351   3
  -1   4  -5 709.238 321.188   4
  -1   4  -5 407.658 255.592   5
  -2   4  -4 270837. 3994.54   5
  -2   4  -4 270328. 3953.56   4
  -3   4  -3 89.5897 214.998   4
  -3   4  -3-120.086 197.689   5
  -4   4  -2 521865. 5279.83   5
  -4   4  -2 521092. 8667.78   7
  -4   4  -2 518541. 4803.68   4
   0   6  -6 12069.5 1249.90   4
  -1   6  -5 160.741 288.590   4
  -1   6  -5-61.0683 308.661   5
  -2   6  -4 36482.2 1692.97   5
  -2   6  -4 34897.9 1662.44   4
  -3   6  -3 2041.03 415.194   4
  -3   6  -3 1999.33 424.190   5
  -4   6  -2 54976.1 1874.05   5
  -5   6  -1 600.208 274.335   5
  -6   6   0 28527.0 1215.13   5
  -9  -6   3 686.678 268.327   3
  -3   8  -3 427.979 369.892   5
  -4   8  -2 146991. 3491.54   5
  -5   8  -1-129.355 264.617   5
   1   1  -8 133.601 396.953   4
   0  -1  -7 291.904 252.531   4
   0   1  -7 494.240 287.080   4
  -1  -1  -6 2844.73 514.128   4
  -1   1  -6 3510.92 534.152   4
   1  -1   6 2409.36 818.709   3
  -2   1  -5 9205.94 661.860   5
  -2   1  -5 8225.76 694.589   4
  -2  -1  -5 8769.46 668.360   4
   0   3  -7 562.492 468.170   4
  -1   3  -6 618.885 318.213   4
   1  -3   6 8.41324 508.196   3
  -1   3  -6 602.845 309.938   5
   2  -3   5 23747.8 2048.17   3
  -2   3  -5 21090.2 1131.02   5
  -2   3  -5 23024.5 1248.51   4
  -3   3  -4 1115.66 309.317   5
  -3   3  -4 632.474 239.004   4
  -1   5  -6 301.437 299.428   4
  -1   5  -6 183.375 333.195   5
  -2   5  -5 16462.0 1156.49   5
  -2   5  -5 16867.3 1183.77   4
  -4   5  -3 62029.4 2157.62   5
  -4   5  -3 58427.8 1864.03   4
  -3   7  -4 822.638 424.415   5
  -4   7  -3 53870.0 2275.52   5
   0   0   0    0.00    0.00   0
;
_shelx_hkl_checksum   68115

